    1C
    1UUSER
    1UDATE              02/16/12
    1UTIME              14:10:15
    1UHOST
    1UPGM               FelyX
    1UDIR
    1UDBN
    2C                                                                   1
 -1         1 0.00000E+00 0.00000E+00 0.00000E+00
 -1         2 0.00000E+00 0.00000E+00 1.00000E+02
 -1         3 1.00000E+02 0.00000E+00 1.00000E+02
 -1         4 1.00000E+02 0.00000E+00 0.00000E+00
 -3
    3C                                                                   1
 -1         1   11    1    1
 -2         1         2
 -1         2   11    1    1
 -2         2         3
 -1         3   11    1    1
 -2         3         4
 -3
    1PSTEP     1
  100CL  101 1.00000E+00           4                     0    1           1
 -4  DISP        4    1
 -5  D1          1    2    1    0
 -5  D2          1    2    2    0
 -5  D3          1    2    3    0
 -5  ALL         1    2    0    0    1ALL
 -1         1 0.00000E+00 0.00000E+00 0.00000E+00
 -1         2 5.06254E-02 0.00000E+00 7.09421E-04
 -1         3 4.97971E-02 0.00000E+00-7.09421E-04
 -1         4 0.00000E+00 0.00000E+00 0.00000E+00
 -3
    1PSTEP     2
  100CL  101 1.00000E+00           4                     0    1           1
 -4  FORC        4    1
 -5  F1          1    2    1    0
 -5  F2          1    2    2    0
 -5  F3          1    2    3    0
 -5  ALL         1    2    0    0    1ALL
 -1         1-2.51491E+03 0.00000E+00-2.12826E+03
 -1         2 5.00000E+03 0.00000E+00 0.00000E+00
 -1         3 0.00000E+00 0.00000E+00 0.00000E+00
 -1         4-2.48509E+03 0.00000E+00 2.12826E+03
 -3
 9999

