    1C
    1UUSER
    1UDATE              02/11/12
    1UTIME              18:54:47
    1UHOST
    1UPGM               FelyX
    1UDIR
    1UDBN
    2C                                                                   1
 -1         1 4.00000E+00 6.00000E+00 3.00000E+01
 -1         2 4.00000E+00 4.00000E+00 3.00000E+01
 -1         3 6.00000E+00 6.00000E+00 3.00000E+01
 -1         4 6.00000E+00 4.00000E+00 3.00000E+01
 -1         5 4.46784E-01 4.46784E-01 9.00000E+00
 -1         6 9.55322E+00 4.46784E-01 9.00000E+00
 -1         7 4.46784E-01 9.55322E+00 9.00000E+00
 -1         8 9.55322E+00 9.55322E+00 9.00000E+00
 -1         9 7.34600E-01 7.34600E-01 1.20000E+01
 -1        10 9.26540E+00 7.34600E-01 1.20000E+01
 -1        11 7.34600E-01 9.26540E+00 1.20000E+01
 -1        12 9.26540E+00 9.26540E+00 1.20000E+01
 -1        13 1.09322E+00 1.09322E+00 1.50000E+01
 -1        14 8.90678E+00 1.09322E+00 1.50000E+01
 -1        15 1.09322E+00 8.90678E+00 1.50000E+01
 -1        16 8.90678E+00 8.90678E+00 1.50000E+01
 -1        17 1.52382E+00 1.52382E+00 1.80000E+01
 -1        18 8.47617E+00 1.52382E+00 1.80000E+01
 -1        19 1.52382E+00 8.47617E+00 1.80000E+01
 -1        20 8.47617E+00 8.47617E+00 1.80000E+01
 -1        21 2.02788E+00 2.02788E+00 2.10000E+01
 -1        22 7.97212E+00 2.02788E+00 2.10000E+01
 -1        23 2.02788E+00 7.97212E+00 2.10000E+01
 -1        24 7.97212E+00 7.97212E+00 2.10000E+01
 -1        25 2.60714E+00 2.60714E+00 2.40000E+01
 -1        26 7.39286E+00 2.60714E+00 2.40000E+01
 -1        27 2.60714E+00 7.39286E+00 2.40000E+01
 -1        28 7.39286E+00 7.39286E+00 2.40000E+01
 -1        29 3.26369E+00 3.26369E+00 2.70000E+01
 -1        30 6.73631E+00 3.26369E+00 2.70000E+01
 -1        31 3.26369E+00 6.73631E+00 2.70000E+01
 -1        32 6.73631E+00 6.73631E+00 2.70000E+01
 -1        33 2.28837E-01 2.28837E-01 6.00000E+00
 -1        34 9.77116E+00 2.28837E-01 6.00000E+00
 -1        35 2.28837E-01 9.77116E+00 6.00000E+00
 -1        36 9.77116E+00 9.77116E+00 6.00000E+00
 -1        37 8.00660E-02 8.00660E-02 3.00000E+00
 -1        38 9.91993E+00 8.00660E-02 3.00000E+00
 -1        39 8.00660E-02 9.91993E+00 3.00000E+00
 -1        40 9.91993E+00 9.91993E+00 3.00000E+00
 -1        41 0.00000E+00 0.00000E+00 0.00000E+00
 -1        42 1.00000E+01 0.00000E+00 0.00000E+00
 -1        43 0.00000E+00 1.00000E+01 0.00000E+00
 -1        44 1.00000E+01 1.00000E+01 0.00000E+00
 -3
    3C                                                                   1
 -1         1   11    1    1
 -2         1         2
 -1         2   11    1    1
 -2         3         1
 -1         3   11    1    1
 -2         4         3
 -1         4   11    1    1
 -2         2         4
 -1         5   11    1    1
 -2         5         6
 -1         6   11    1    1
 -2         7         5
 -1         7   11    1    1
 -2         8         7
 -1         8   11    1    1
 -2         6         8
 -1         9   11    1    1
 -2         9        10
 -1        10   11    1    1
 -2        11         9
 -1        11   11    1    1
 -2        12        11
 -1        12   11    1    1
 -2        10        12
 -1        13   11    1    1
 -2        13        14
 -1        14   11    1    1
 -2        15        13
 -1        15   11    1    1
 -2        16        15
 -1        16   11    1    1
 -2        14        16
 -1        17   11    1    1
 -2        17        18
 -1        18   11    1    1
 -2        19        17
 -1        19   11    1    1
 -2        20        19
 -1        20   11    1    1
 -2        18        20
 -1        21   11    1    1
 -2        21        22
 -1        22   11    1    1
 -2        23        21
 -1        23   11    1    1
 -2        24        23
 -1        24   11    1    1
 -2        22        24
 -1        25   11    1    1
 -2        25        26
 -1        26   11    1    1
 -2        27        25
 -1        27   11    1    1
 -2        28        27
 -1        28   11    1    1
 -2        26        28
 -1        29   11    1    1
 -2        29        30
 -1        30   11    1    1
 -2        31        29
 -1        31   11    1    1
 -2        32        31
 -1        32   11    1    1
 -2        30        32
 -1        33   11    1    1
 -2        29         2
 -1        34   11    1    1
 -2        30         4
 -1        35   11    1    1
 -2        31         1
 -1        36   11    1    1
 -2        32         3
 -1        37   11    1    1
 -2        25        29
 -1        38   11    1    1
 -2        26        30
 -1        39   11    1    1
 -2        27        31
 -1        40   11    1    1
 -2        28        32
 -1        41   11    1    1
 -2        21        25
 -1        42   11    1    1
 -2        22        26
 -1        43   11    1    1
 -2        23        27
 -1        44   11    1    1
 -2        24        28
 -1        45   11    1    1
 -2        17        21
 -1        46   11    1    1
 -2        18        22
 -1        47   11    1    1
 -2        19        23
 -1        48   11    1    1
 -2        20        24
 -1        49   11    1    1
 -2        13        17
 -1        50   11    1    1
 -2        14        18
 -1        51   11    1    1
 -2        15        19
 -1        52   11    1    1
 -2        16        20
 -1        53   11    1    1
 -2        10        14
 -1        54   11    1    1
 -2         9        13
 -1        55   11    1    1
 -2        11        15
 -1        56   11    1    1
 -2        12        16
 -1        57   11    1    1
 -2         5         9
 -1        58   11    1    1
 -2         6        10
 -1        59   11    1    1
 -2         7        11
 -1        60   11    1    1
 -2         8        12
 -1        61   11    1    1
 -2        33         5
 -1        62   11    1    1
 -2        34         6
 -1        63   11    1    1
 -2        35         7
 -1        64   11    1    1
 -2        36         8
 -1        65   11    1    1
 -2        33        35
 -1        66   11    1    1
 -2        37        33
 -1        67   11    1    1
 -2        34        33
 -1        68   11    1    1
 -2        34        36
 -1        69   11    1    1
 -2        38        34
 -1        70   11    1    1
 -2        39        35
 -1        71   11    1    1
 -2        36        35
 -1        72   11    1    1
 -2        40        36
 -1        73   11    1    1
 -2        41        37
 -1        74   11    1    1
 -2        42        38
 -1        75   11    1    1
 -2        43        39
 -1        76   11    1    1
 -2        44        40
 -1        77   11    1    1
 -2        39        37
 -1        78   11    1    1
 -2        40        39
 -1        79   11    1    1
 -2        38        40
 -1        80   11    1    1
 -2        37        38
 -3
    1PSTEP     1
  100CL  101 1.00000E+00          44                     0    1           1
 -4  DISP        4    1
 -5  D1          1    2    1    0
 -5  D2          1    2    2    0
 -5  D3          1    2    3    0
 -5  ALL         1    2    0    0    1ALL
 -1         1 2.73188E-01 1.50107E-02-9.91161E-03
 -1         2 2.40789E-01 1.49957E-02-9.76403E-03
 -1         3 2.72973E-01-1.49957E-02 8.95832E-03
 -1         4 2.40786E-01-1.49791E-02 8.85434E-03
 -1         5 1.71476E-01 1.10463E-02-5.62581E-03
 -1         6 1.71476E-01-1.10467E-02 5.12604E-03
 -1         7 1.94225E-01 1.09980E-02-5.56683E-03
 -1         8 1.94226E-01-1.09976E-02 5.06706E-03
 -1         9 1.99567E-01 1.39481E-02-7.92047E-03
 -1        10 1.99565E-01-1.39464E-02 7.30196E-03
 -1        11 2.28067E-01 1.39050E-02-7.82756E-03
 -1        12 2.28065E-01-1.39066E-02 7.20904E-03
 -1        13 2.20085E-01 1.66895E-02-1.00644E-02
 -1        14 2.20082E-01-1.66867E-02 9.34976E-03
 -1        15 2.53969E-01 1.66528E-02-9.92975E-03
 -1        16 2.53966E-01-1.66555E-02 9.21509E-03
 -1        17 2.34139E-01 1.90663E-02-1.18280E-02
 -1        18 2.34136E-01-1.90629E-02 1.10386E-02
 -1        19 2.72661E-01 1.90365E-02-1.16453E-02
 -1        20 2.72658E-01-1.90399E-02 1.08559E-02
 -1        21 2.42652E-01 2.07778E-02-1.29961E-02
 -1        22 2.42648E-01-2.07741E-02 1.21520E-02
 -1        23 2.84500E-01 2.07558E-02-1.27634E-02
 -1        24 2.84496E-01-2.07591E-02 1.19194E-02
 -1        25 2.46473E-01 2.13710E-02-1.33552E-02
 -1        26 2.46470E-01-2.13673E-02 1.24749E-02
 -1        27 2.89523E-01 2.13580E-02-1.30885E-02
 -1        28 2.89521E-01-2.13603E-02 1.22086E-02
 -1        29 2.46161E-01 2.00465E-02-1.25866E-02
 -1        30 2.46159E-01-2.00413E-02 1.16862E-02
 -1        31 2.87066E-01 2.00428E-02-1.23885E-02
 -1        32 2.87062E-01-2.00421E-02 1.14888E-02
 -1        33 1.33896E-01 8.07403E-03-3.40541E-03
 -1        34 1.33896E-01-8.07453E-03 3.04746E-03
 -1        35 1.50662E-01 8.01768E-03-3.37204E-03
 -1        36 1.50662E-01-8.01718E-03 3.01409E-03
 -1        37 8.18997E-02 4.81117E-03-1.44826E-03
 -1        38 8.19117E-02-4.82323E-03 1.25774E-03
 -1        39 9.19514E-02 4.75797E-03-1.43312E-03
 -1        40 9.19635E-02-4.74591E-03 1.24260E-03
 -1        41 0.00000E+00 0.00000E+00 0.00000E+00
 -1        42 0.00000E+00 0.00000E+00 0.00000E+00
 -1        43 0.00000E+00 0.00000E+00 0.00000E+00
 -1        44 0.00000E+00 0.00000E+00 0.00000E+00
 -3
    1PSTEP     2
  100CL  101 1.00000E+00          44                     0    1           1
 -4  FORC        4    1
 -5  F1          1    2    1    0
 -5  F2          1    2    2    0
 -5  F3          1    2    3    0
 -5  ALL         1    2    0    0    1ALL
 -1         1 5.00311E+05-3.10854E+02-1.94013E+03
 -1         2 3.10854E+02 3.10854E+02-1.94013E+03
 -1         3-3.10854E+02-3.10854E+02-1.94013E+03
 -1         4-3.10854E+02 3.10854E+02-1.94013E+03
 -1         5 1.04488E+03-8.51101E+02-9.50609E+03
 -1         6 8.51101E+02 1.04488E+03-9.50609E+03
 -1         7-8.51101E+02-1.04488E+03-9.50609E+03
 -1         8-1.04488E+03 8.51101E+02-9.50609E+03
 -1         9 1.07544E+03-8.20535E+02-9.00873E+03
 -1        10 8.20536E+02 1.07544E+03-9.00873E+03
 -1        11-8.20535E+02-1.07544E+03-9.00873E+03
 -1        12-1.07544E+03 8.20535E+02-9.00873E+03
 -1        13 1.10601E+03-7.89969E+02-8.38932E+03
 -1        14 7.89969E+02 1.10601E+03-8.38932E+03
 -1        15-7.89969E+02-1.10601E+03-8.38932E+03
 -1        16-1.10601E+03 7.89969E+02-8.38932E+03
 -1        17 1.13657E+03-7.59403E+02-7.64594E+03
 -1        18 7.59403E+02 1.13657E+03-7.64594E+03
 -1        19-7.59403E+02-1.13657E+03-7.64594E+03
 -1        20-1.13657E+03 7.59403E+02-7.64594E+03
 -1        21 1.16714E+03-7.28836E+02-6.77618E+03
 -1        22 7.28836E+02 1.16714E+03-6.77618E+03
 -1        23-7.28836E+02-1.16714E+03-6.77618E+03
 -1        24-1.16714E+03 7.28836E+02-6.77618E+03
 -1        25 1.19771E+03-6.98269E+02-5.77719E+03
 -1        26 6.98269E+02 1.19771E+03-5.77719E+03
 -1        27-6.98269E+02-1.19771E+03-5.77719E+03
 -1        28-1.19771E+03 6.98269E+02-5.77719E+03
 -1        29 1.22828E+03-6.67702E+02-4.64554E+03
 -1        30 6.67702E+02 1.22828E+03-4.64554E+03
 -1        31-6.67702E+02-1.22828E+03-4.64554E+03
 -1        32-1.22828E+03 6.67702E+02-4.64554E+03
 -1        33 1.01431E+03-8.81668E+02-9.88296E+03
 -1        34 8.81666E+02 1.01431E+03-9.88296E+03
 -1        35-8.81669E+02-1.01431E+03-9.88296E+03
 -1        36-1.01431E+03 8.81668E+02-9.88296E+03
 -1        37 9.83743E+02-9.12234E+02-1.01405E+04
 -1        38 9.12235E+02 9.83742E+02-1.01405E+04
 -1        39-9.12232E+02-9.83745E+02-1.01405E+04
 -1        40-9.83743E+02 9.12234E+02-1.01405E+04
 -1        41-1.15442E+05-2.30306E+04-6.65484E+05
 -1        42-1.21096E+05 2.86846E+04 8.12909E+05
 -1        43-1.28904E+05 1.15141E+04-6.87091E+05
 -1        44-1.34558E+05-1.71681E+04 8.34516E+05
 -3
 9999

