    1C
    1UUSER
    1UDATE              02/16/12
    1UTIME              23:46:29
    1UHOST
    1UPGM               FelyX
    1UDIR
    1UDBN
    2C                                                                   1
 -1         1 2.60700E+00 2.60700E+00 2.40000E+01
 -1         2 4.00000E+00 4.00000E+00 3.00000E+01
 -1         3 7.39300E+00 2.60700E+00 2.40000E+01
 -1         4 6.00000E+00 4.00000E+00 3.00000E+01
 -1         5 7.39300E+00 7.39300E+00 2.40000E+01
 -1         6 6.00000E+00 6.00000E+00 3.00000E+01
 -1         7 2.60700E+00 7.39300E+00 2.40000E+01
 -1         8 4.00000E+00 6.00000E+00 3.00000E+01
 -1         9 8.47600E+00 1.52400E+00 1.80000E+01
 -1        10 1.52400E+00 1.52400E+00 1.80000E+01
 -1        11 1.52400E+00 8.47600E+00 1.80000E+01
 -1        12 8.47600E+00 8.47600E+00 1.80000E+01
 -1        13 7.34600E-01 7.34600E-01 1.20000E+01
 -1        14 9.26500E+00 7.34600E-01 1.20000E+01
 -1        15 9.26500E+00 9.26500E+00 1.20000E+01
 -1        16 7.34600E-01 9.26500E+00 1.20000E+01
 -1        17 2.28800E-01 2.28800E-01 6.00000E+00
 -1        18 9.77100E+00 2.28800E-01 6.00000E+00
 -1        19 9.77100E+00 9.77100E+00 6.00000E+00
 -1        20 2.28800E-01 9.77100E+00 6.00000E+00
 -1        21 0.00000E+00 1.00000E+01 0.00000E+00
 -1        22 1.00000E+01 1.00000E+01 0.00000E+00
 -1        23 0.00000E+00 0.00000E+00 0.00000E+00
 -1        24 1.00000E+01 0.00000E+00 0.00000E+00
 -3
    3C                                                                   1
 -1         1   11    1    1
 -2         1         2
 -1         2   11    1    1
 -2         3         4
 -1         3   11    1    1
 -2         5         6
 -1         4   11    1    1
 -2         7         8
 -1         5   11    1    1
 -2         9         3
 -1         6   11    1    1
 -2        10         1
 -1         7   11    1    1
 -2        11         7
 -1         8   11    1    1
 -2        12         5
 -1         9   11    1    1
 -2        13        10
 -1        10   11    1    1
 -2        14         9
 -1        11   11    1    1
 -2        15        12
 -1        12   11    1    1
 -2        16        11
 -1        13   11    1    1
 -2        17        13
 -1        14   11    1    1
 -2        18        14
 -1        15   11    1    1
 -2        19        15
 -1        16   11    1    1
 -2        20        16
 -1        17   11    1    1
 -2        21        20
 -1        18   11    1    1
 -2        22        19
 -1        19   11    1    1
 -2        23        17
 -1        20   11    1    1
 -2        24        18
 -1        21   11    1    1
 -2        19        20
 -1        22   11    1    1
 -2        18        19
 -1        23   11    1    1
 -2        18        17
 -1        24   11    1    1
 -2        17        20
 -1        25   11    1    1
 -2         3         5
 -1        26   11    1    1
 -2         5         7
 -1        27   11    1    1
 -2         7         1
 -1        28   11    1    1
 -2         1         3
 -1        29   11    1    1
 -2         9        12
 -1        30   11    1    1
 -2        12        11
 -1        31   11    1    1
 -2        11        10
 -1        32   11    1    1
 -2        10         9
 -1        33   11    1    1
 -2        14        15
 -1        34   11    1    1
 -2        15        16
 -1        35   11    1    1
 -2        16        13
 -1        36   11    1    1
 -2        13        14
 -1        37   11    1    1
 -2         2         4
 -1        38   11    1    1
 -2         4         6
 -1        39   11    1    1
 -2         6         8
 -1        40   11    1    1
 -2         8         2
 -3
    1PSTEP     1
  100CL  101 1.00000E+00          24                     0    1           1
 -4  DISP        4    1
 -5  D1          1    2    1    0
 -5  D2          1    2    2    0
 -5  D3          1    2    3    0
 -5  ALL         1    2    0    0    1ALL
 -1         1-1.43568E-06-1.43568E-06-3.56293E-04
 -1         2-2.73489E-06-2.73489E-06-3.69683E-04
 -1         3-5.31242E-06-1.43567E-06-3.56403E-04
 -1         4-3.72081E-06-2.73489E-06-3.69725E-04
 -1         5-5.31244E-06-5.31244E-06-3.56513E-04
 -1         6-3.72082E-06-3.72082E-06-3.69767E-04
 -1         7-1.43567E-06-5.31242E-06-3.56403E-04
 -1         8-2.73489E-06-3.72081E-06-3.69725E-04
 -1         9-5.32788E-06-2.11351E-06-3.14730E-04
 -1        10-2.11353E-06-2.11353E-06-3.14496E-04
 -1        11-2.11351E-06-5.32788E-06-3.14730E-04
 -1        12-5.32789E-06-5.32789E-06-3.14965E-04
 -1        13-3.93500E-06-3.93500E-06-2.42303E-04
 -1        14-5.10378E-06-3.93529E-06-2.42746E-04
 -1        15-5.10350E-06-5.10350E-06-2.43189E-04
 -1        16-3.93529E-06-5.10378E-06-2.42746E-04
 -1        17-7.52841E-06-7.52841E-06-1.37568E-04
 -1        18 6.42913E-07-7.52839E-06-1.37827E-04
 -1        19 6.42905E-07 6.42905E-07-1.38085E-04
 -1        20-7.52839E-06 6.42913E-07-1.37827E-04
 -1        21 0.00000E+00 0.00000E+00 0.00000E+00
 -1        22 0.00000E+00 0.00000E+00 0.00000E+00
 -1        23 0.00000E+00 0.00000E+00 0.00000E+00
 -1        24 0.00000E+00 0.00000E+00 0.00000E+00
 -3
    1PSTEP     2
  100CL  101 1.00000E+00          24                     0    1           1
 -4  FORC        4    1
 -5  F1          1    2    1    0
 -5  F2          1    2    2    0
 -5  F3          1    2    3    0
 -5  ALL         1    2    0    0    1ALL
 -1         1-5.68434E-14-5.68434E-14-9.86703E+03
 -1         2 0.00000E+00 0.00000E+00-4.60969E+03
 -1         3 5.68434E-14-5.68434E-14-9.86703E+03
 -1         4 0.00000E+00 0.00000E+00-4.60969E+03
 -1         5 5.68434E-14 5.68434E-14-9.86703E+03
 -1         6 0.00000E+00 0.00000E+00-4.60969E+03
 -1         7-5.68434E-14 5.68434E-14-9.86703E+03
 -1         8 0.00000E+00 0.00000E+00-4.60969E+03
 -1         9 1.13687E-13-1.13687E-13-1.17081E+04
 -1        10-1.70530E-13-1.70530E-13-1.17081E+04
 -1        11-1.13687E-13 1.13687E-13-1.17081E+04
 -1        12 1.13687E-13 1.13687E-13-1.17081E+04
 -1        13-8.52651E-14-8.52651E-14-1.30519E+04
 -1        14 5.68434E-14-8.52651E-14-1.30519E+04
 -1        15 5.68434E-14 5.68434E-14-1.30518E+04
 -1        16-8.52651E-14 5.68434E-14-1.30519E+04
 -1        17 2.84217E-14 2.84217E-14-1.39141E+04
 -1        18 1.42109E-14-2.84217E-14-1.39141E+04
 -1        19-2.84217E-14-2.84217E-14-1.39141E+04
 -1        20-2.84217E-14 1.42109E-14-1.39141E+04
 -1        21 2.42668E+03-2.42674E+03 5.58360E+04
 -1        22-2.42668E+03-2.42668E+03 5.58344E+04
 -1        23 2.42674E+03 2.42674E+03 5.58376E+04
 -1        24-2.42674E+03 2.42668E+03 5.58360E+04
 -3
 9999

