    1C
    1UUSER
    1UDATE              02/17/12
    1UTIME              01:00:49
    1UHOST
    1UPGM               FelyX
    1UDIR
    1UDBN
    2C                                                                   1
 -1         1 0.00000E+00 5.00000E+00 1.00000E+01
 -1         2 0.00000E+00 0.00000E+00 1.50000E+01
 -1         3 5.00000E+00 5.00000E+00 1.00000E+01
 -1         4 0.00000E+00 5.00000E+00 1.50000E+01
 -1         5 5.00000E+00 0.00000E+00 1.00000E+01
 -1         6 5.00000E+00 5.00000E+00 1.50000E+01
 -1         7 0.00000E+00 0.00000E+00 1.00000E+01
 -1         8 5.00000E+00 0.00000E+00 1.50000E+01
 -1         9 0.00000E+00 0.00000E+00 5.00000E+00
 -1        10 5.00000E+00 0.00000E+00 5.00000E+00
 -1        11 5.00000E+00 5.00000E+00 5.00000E+00
 -1        12 0.00000E+00 5.00000E+00 5.00000E+00
 -1        13 0.00000E+00 5.00000E+00 0.00000E+00
 -1        14 5.00000E+00 5.00000E+00 0.00000E+00
 -1        15 5.00000E+00 0.00000E+00 0.00000E+00
 -1        16 0.00000E+00 0.00000E+00 0.00000E+00
 -3
    3C                                                                   1
 -1         1   11    1    1
 -2         1         2
 -1         2   11    1    1
 -2         3         4
 -1         3   11    1    1
 -2         5         6
 -1         4   11    1    1
 -2         7         8
 -1         5   11    1    1
 -2         1         4
 -1         6   11    1    1
 -2         3         6
 -1         7   11    1    1
 -2         5         8
 -1         8   11    1    1
 -2         7         2
 -1         9   11    1    1
 -2         4         2
 -1        10   11    1    1
 -2         6         4
 -1        11   11    1    1
 -2         8         6
 -1        12   11    1    1
 -2         2         8
 -1        13   11    1    1
 -2         7         5
 -1        14   11    1    1
 -2         5         3
 -1        15   11    1    1
 -2         3         1
 -1        16   11    1    1
 -2         1         7
 -1        17   11    1    1
 -2         9         7
 -1        18   11    1    1
 -2        10         5
 -1        19   11    1    1
 -2        11         3
 -1        20   11    1    1
 -2        12         1
 -1        21   11    1    1
 -2         9         5
 -1        22   11    1    1
 -2        10         3
 -1        23   11    1    1
 -2        11         1
 -1        24   11    1    1
 -2        12         7
 -1        25   11    1    1
 -2        13         9
 -1        26   11    1    1
 -2        14        12
 -1        27   11    1    1
 -2        15        11
 -1        28   11    1    1
 -2        16        10
 -1        29   11    1    1
 -2        12         9
 -1        30   11    1    1
 -2        11        12
 -1        31   11    1    1
 -2        10        11
 -1        32   11    1    1
 -2        13        12
 -1        33   11    1    1
 -2        14        11
 -1        34   11    1    1
 -2        15        10
 -1        35   11    1    1
 -2         9        10
 -1        36   11    1    1
 -2        16         9
 -3
    1PSTEP     1
  100CL  101 1.00000E+00          16                     0    1           1
 -4  DISP        4    1
 -5  D1          1    2    1    0
 -5  D2          1    2    2    0
 -5  D3          1    2    3    0
 -5  ALL         1    2    0    0    1ALL
 -1         1-2.50410E-05-2.50410E-05-2.50410E-05
 -1         2 2.88935E-05-2.88935E-05-2.88935E-05
 -1         3-2.50410E-05 2.50410E-05-2.50410E-05
 -1         4-2.88935E-05-2.88935E-05-2.88935E-05
 -1         5 2.50410E-05 2.50410E-05-2.50410E-05
 -1         6-2.88935E-05 2.88935E-05-2.88935E-05
 -1         7 2.50410E-05-2.50410E-05-2.50410E-05
 -1         8 2.88935E-05 2.88935E-05-2.88935E-05
 -1         9 1.54099E-05-1.54099E-05-1.54099E-05
 -1        10 1.54099E-05 1.54099E-05-1.54099E-05
 -1        11-1.54099E-05 1.54099E-05-1.54099E-05
 -1        12-1.54099E-05-1.54099E-05-1.54099E-05
 -1        13 0.00000E+00 0.00000E+00 0.00000E+00
 -1        14 0.00000E+00 0.00000E+00 0.00000E+00
 -1        15 0.00000E+00 0.00000E+00 0.00000E+00
 -1        16 0.00000E+00 0.00000E+00 0.00000E+00
 -3
    1PSTEP     2
  100CL  101 1.00000E+00          16                     0    1           1
 -4  FORC        4    1
 -5  F1          1    2    1    0
 -5  F2          1    2    2    0
 -5  F3          1    2    3    0
 -5  ALL         1    2    0    0    1ALL
 -1         1 0.00000E+00 0.00000E+00-2.68132E+03
 -1         2 0.00000E+00 0.00000E+00-1.78754E+03
 -1         3 0.00000E+00 0.00000E+00-2.68132E+03
 -1         4 0.00000E+00 0.00000E+00-1.78754E+03
 -1         5 0.00000E+00 0.00000E+00-2.68132E+03
 -1         6 0.00000E+00 0.00000E+00-1.78754E+03
 -1         7 0.00000E+00 0.00000E+00-2.68132E+03
 -1         8 0.00000E+00 0.00000E+00-1.78754E+03
 -1         9 0.00000E+00 0.00000E+00-2.68132E+03
 -1        10 0.00000E+00 0.00000E+00-2.68132E+03
 -1        11 0.00000E+00 0.00000E+00-2.68132E+03
 -1        12 0.00000E+00 0.00000E+00-2.68132E+03
 -1        13 0.00000E+00 1.81899E-12 8.04395E+03
 -1        14 1.36424E-12 0.00000E+00 8.04395E+03
 -1        15 0.00000E+00-1.86446E-11 8.04395E+03
 -1        16-1.31877E-11 0.00000E+00 8.04395E+03
 -3
 9999

