    1C
    1UUSER
    1UDATE              02/11/12
    1UTIME              18:54:47
    1UHOST
    1UPGM               FelyX
    1UDIR
    1UDBN
    2C                                                                   1
 -1         1 1.52382E+00 1.52382E+00 1.80000E+01
 -1         2 2.60714E+00 2.60714E+00 2.40000E+01
 -1         3 8.47617E+00 1.52382E+00 1.80000E+01
 -1         4 7.39286E+00 2.60714E+00 2.40000E+01
 -1         5 1.52382E+00 8.47617E+00 1.80000E+01
 -1         6 2.60714E+00 7.39286E+00 2.40000E+01
 -1         7 8.47617E+00 8.47617E+00 1.80000E+01
 -1         8 7.39286E+00 7.39286E+00 2.40000E+01
 -1         9 9.26540E+00 7.34600E-01 1.20000E+01
 -1        10 7.34600E-01 7.34600E-01 1.20000E+01
 -1        11 9.26540E+00 9.26540E+00 1.20000E+01
 -1        12 7.34600E-01 9.26540E+00 1.20000E+01
 -1        13 9.77116E+00 2.28837E-01 6.00000E+00
 -1        14 2.28837E-01 2.28837E-01 6.00000E+00
 -1        15 9.77116E+00 9.77116E+00 6.00000E+00
 -1        16 2.28837E-01 9.77116E+00 6.00000E+00
 -1        17 0.00000E+00 1.00000E+01 0.00000E+00
 -1        18 1.00000E+01 0.00000E+00 0.00000E+00
 -1        19 1.00000E+01 1.00000E+01 0.00000E+00
 -1        20 0.00000E+00 0.00000E+00 0.00000E+00
 -1        21 5.00000E+00 9.77116E+00 6.00000E+00
 -1        22 5.00000E+00 8.47617E+00 1.80000E+01
 -1        23 2.28837E-01 5.00000E+00 6.00000E+00
 -1        24 1.52382E+00 5.00000E+00 1.80000E+01
 -1        25 5.00000E+00 2.28837E-01 6.00000E+00
 -1        26 5.00000E+00 1.52382E+00 1.80000E+01
 -1        27 9.77116E+00 5.00000E+00 6.00000E+00
 -1        28 8.47617E+00 5.00000E+00 1.80000E+01
 -3
    3C                                                                   1
 -1         1   11    1    1
 -2         1         2
 -1         2   11    1    1
 -2         3         4
 -1         3   11    1    1
 -2         5         6
 -1         4   11    1    1
 -2         7         8
 -1         5   11    1    1
 -2         9         3
 -1         6   11    1    1
 -2        10         1
 -1         7   11    1    1
 -2        11         7
 -1         8   11    1    1
 -2        12         5
 -1         9   11    1    1
 -2        13         9
 -1        10   11    1    1
 -2        14        10
 -1        11   11    1    1
 -2        15        11
 -1        12   11    1    1
 -2        16        12
 -1        13   11    1    1
 -2        17        16
 -1        14   11    1    1
 -2        18        13
 -1        15   11    1    1
 -2        19        15
 -1        16   11    1    1
 -2        20        14
 -1        17   11    1    1
 -2        11        12
 -1        18   11    1    1
 -2         8         6
 -1        19   11    1    1
 -2        19        21
 -1        20   11    1    1
 -2        17        21
 -1        21   11    1    1
 -2        21        12
 -1        22   11    1    1
 -2        21        11
 -1        23   11    1    1
 -2        12        22
 -1        24   11    1    1
 -2        11        22
 -1        25   11    1    1
 -2        22         6
 -1        26   11    1    1
 -2        22         8
 -1        27   11    1    1
 -2         2         4
 -1        28   11    1    1
 -2         6         2
 -1        29   11    1    1
 -2         4         8
 -1        30   11    1    1
 -2         7        22
 -1        31   11    1    1
 -2        22         5
 -1        32   11    1    1
 -2        15        21
 -1        33   11    1    1
 -2        21        16
 -1        34   11    1    1
 -2        23        14
 -1        35   11    1    1
 -2        16        23
 -1        36   11    1    1
 -2        24         1
 -1        37   11    1    1
 -2         5        24
 -1        38   11    1    1
 -2        24         6
 -1        39   11    1    1
 -2        24         2
 -1        40   11    1    1
 -2        12        24
 -1        41   11    1    1
 -2        10        24
 -1        42   11    1    1
 -2        23        12
 -1        43   11    1    1
 -2        23        10
 -1        44   11    1    1
 -2        20        23
 -1        45   11    1    1
 -2        17        23
 -1        46   11    1    1
 -2        12        10
 -1        47   11    1    1
 -2        25        13
 -1        48   11    1    1
 -2        14        25
 -1        49   11    1    1
 -2        26         3
 -1        50   11    1    1
 -2         1        26
 -1        51   11    1    1
 -2        26         2
 -1        52   11    1    1
 -2        26         4
 -1        53   11    1    1
 -2        10        26
 -1        54   11    1    1
 -2         9        26
 -1        55   11    1    1
 -2        25        10
 -1        56   11    1    1
 -2        25         9
 -1        57   11    1    1
 -2        18        25
 -1        58   11    1    1
 -2        20        25
 -1        59   11    1    1
 -2        10         9
 -1        60   11    1    1
 -2        27        15
 -1        61   11    1    1
 -2        13        27
 -1        62   11    1    1
 -2        28         7
 -1        63   11    1    1
 -2         3        28
 -1        64   11    1    1
 -2        28         4
 -1        65   11    1    1
 -2        28         8
 -1        66   11    1    1
 -2         9        28
 -1        67   11    1    1
 -2        11        28
 -1        68   11    1    1
 -2        27         9
 -1        69   11    1    1
 -2        27        11
 -1        70   11    1    1
 -2        19        27
 -1        71   11    1    1
 -2        18        27
 -1        72   11    1    1
 -2         9        11
 -3
    1PSTEP     1
  100CL  101 1.00000E+00          28                     0    1           1
 -4  DISP        4    1
 -5  D1          1    2    1    0
 -5  D2          1    2    2    0
 -5  D3          1    2    3    0
 -5  ALL         1    2    0    0    1ALL
 -1         1 1.81895E-03 7.96112E-04 3.69031E-04
 -1         2 3.18994E-03 1.45679E-03 1.24896E-04
 -1         3 1.81895E-03-7.96112E-04-3.69031E-04
 -1         4 3.13837E-03-1.45679E-03-1.34207E-04
 -1         5-9.76677E-05 7.92943E-04 6.91251E-05
 -1         6-2.25467E-04 1.45679E-03 2.12058E-04
 -1         7-9.76677E-05-7.92943E-04-6.91250E-05
 -1         8-2.25467E-04-1.45679E-03-2.12058E-04
 -1         9 9.72064E-04-4.08117E-04-4.14024E-04
 -1        10 9.72064E-04 4.08117E-04 4.14024E-04
 -1        11-3.69515E-05-4.02008E-04-9.71599E-06
 -1        12-3.69515E-05 4.02008E-04 9.71599E-06
 -1        13 1.87799E-04-4.82196E-05-2.48551E-04
 -1        14 1.87799E-04 4.82196E-05 2.48551E-04
 -1        15-2.81225E-06-3.92672E-05 1.09603E-05
 -1        16-2.81224E-06 3.92672E-05-1.09603E-05
 -1        17 0.00000E+00 0.00000E+00 0.00000E+00
 -1        18 0.00000E+00 0.00000E+00 0.00000E+00
 -1        19 0.00000E+00 0.00000E+00 0.00000E+00
 -1        20 0.00000E+00 0.00000E+00 0.00000E+00
 -1        21-2.35309E-06 1.62635E-11 6.20283E-13
 -1        22-9.76677E-05 2.13691E-11 2.81049E-12
 -1        23 5.39736E-03 3.88081E-05-2.05853E-04
 -1        24 3.27567E-03 7.92943E-04-1.55331E-04
 -1        25 1.78387E-04 2.42432E-10-9.24624E-12
 -1        26 1.81578E-03-3.04788E-04 4.00911E-05
 -1        27 5.39734E-03-3.88081E-05 2.05852E-04
 -1        28 3.27567E-03-7.92943E-04 1.55331E-04
 -3
    1PSTEP     2
  100CL  101 1.00000E+00          28                     0    1           1
 -4  FORC        4    1
 -5  F1          1    2    1    0
 -5  F2          1    2    2    0
 -5  F3          1    2    3    0
 -5  ALL         1    2    0    0    1ALL
 -1         1 0.00000E+00 0.00000E+00 0.00000E+00
 -1         2 5.00000E+04 0.00000E+00 0.00000E+00
 -1         3 0.00000E+00 0.00000E+00 0.00000E+00
 -1         4 0.00000E+00 0.00000E+00 0.00000E+00
 -1         5 0.00000E+00 0.00000E+00 0.00000E+00
 -1         6 0.00000E+00 0.00000E+00 0.00000E+00
 -1         7 0.00000E+00 0.00000E+00 0.00000E+00
 -1         8 0.00000E+00 0.00000E+00 0.00000E+00
 -1         9 0.00000E+00 0.00000E+00 0.00000E+00
 -1        10 0.00000E+00 0.00000E+00 0.00000E+00
 -1        11 0.00000E+00 0.00000E+00 0.00000E+00
 -1        12 0.00000E+00 0.00000E+00 0.00000E+00
 -1        13 0.00000E+00 0.00000E+00 0.00000E+00
 -1        14 0.00000E+00 0.00000E+00 0.00000E+00
 -1        15 0.00000E+00 0.00000E+00 0.00000E+00
 -1        16 0.00000E+00 0.00000E+00 0.00000E+00
 -1        17 6.86544E+02-4.91601E+03 1.08428E+04
 -1        18-2.56865E+04 9.49276E+03 1.30843E+05
 -1        19 6.86543E+02 4.91601E+03-1.08428E+04
 -1        20-2.56865E+04-9.49276E+03-1.30843E+05
 -1        21 0.00000E+00 0.00000E+00 0.00000E+00
 -1        22 0.00000E+00 0.00000E+00 0.00000E+00
 -1        23 0.00000E+00 0.00000E+00 0.00000E+00
 -1        24 0.00000E+00 0.00000E+00 0.00000E+00
 -1        25 0.00000E+00 0.00000E+00 0.00000E+00
 -1        26 0.00000E+00 0.00000E+00 0.00000E+00
 -1        27 0.00000E+00 0.00000E+00 0.00000E+00
 -1        28 0.00000E+00 0.00000E+00 0.00000E+00
 -3
 9999

